./110.data (written by ASE) 

240 	 atoms 
1  atom types
0.0      15.355236719999999  xlo xhi
0.0      18.039289999999998  ylo yhi
0.0      58.881634538709434  zlo zhi


Atoms 

     1   1                       0                       0      31.365934404216937
     2   1                       0                       0      33.881634538709434
     3   1      1.2796030599999999      1.8039289999999997      32.709579315113977
     4   1      1.2796030599999999      1.8039289999999997      30.094397699819858
     5   1                       0                       0      26.172055223595457
     6   1                       0                       0      28.787236838889577
     7   1      1.2796030599999999      1.8039289999999997      27.515700134492498
     8   1      1.2796030599999999      1.8039289999999997                      25
     9   1                       0      3.6078579999999998      31.365934404216937
    10   1                       0      3.6078579999999998      33.881634538709434
    11   1      1.2796030599999999      5.4117869999999995      32.709579315113977
    12   1      1.2796030599999999      5.4117869999999995      30.094397699819858
    13   1                       0      3.6078579999999998      26.172055223595457
    14   1                       0      3.6078579999999998      28.787236838889577
    15   1      1.2796030599999999      5.4117869999999995      27.515700134492498
    16   1      1.2796030599999999      5.4117869999999995                      25
    17   1                       0      7.2157159999999996      31.365934404216937
    18   1                       0      7.2157159999999996      33.881634538709434
    19   1      1.2796030599999999      9.0196449999999988      32.709579315113977
    20   1      1.2796030599999999      9.0196449999999988      30.094397699819858
    21   1                       0      7.2157159999999996      26.172055223595457
    22   1                       0      7.2157159999999996      28.787236838889577
    23   1      1.2796030599999999      9.0196449999999988      27.515700134492498
    24   1      1.2796030599999999      9.0196449999999988                      25
    25   1                       0      10.823573999999999      31.365934404216937
    26   1                       0      10.823573999999999      33.881634538709434
    27   1      1.2796030599999999      12.627502999999999      32.709579315113977
    28   1      1.2796030599999999      12.627502999999999      30.094397699819858
    29   1                       0      10.823573999999999      26.172055223595457
    30   1                       0      10.823573999999999      28.787236838889577
    31   1      1.2796030599999999      12.627502999999999      27.515700134492498
    32   1      1.2796030599999999      12.627502999999999                      25
    33   1                       0      14.431431999999999      31.365934404216937
    34   1                       0      14.431431999999999      33.881634538709434
    35   1      1.2796030599999999      16.235360999999997      32.709579315113977
    36   1      1.2796030599999999      16.235360999999997      30.094397699819858
    37   1                       0      14.431431999999999      26.172055223595457
    38   1                       0      14.431431999999999      28.787236838889577
    39   1      1.2796030599999999      16.235360999999997      27.515700134492498
    40   1      1.2796030599999999      16.235360999999997                      25
    41   1      2.5592061199999998                       0      31.365934404216937
    42   1      2.5592061199999998                       0      33.881634538709434
    43   1      3.8388091799999997      1.8039289999999997      32.709579315113977
    44   1      3.8388091799999997      1.8039289999999997      30.094397699819858
    45   1      2.5592061199999998                       0      26.172055223595457
    46   1      2.5592061199999998                       0      28.787236838889577
    47   1      3.8388091799999997      1.8039289999999997      27.515700134492498
    48   1      3.8388091799999997      1.8039289999999997                      25
    49   1      2.5592061199999998      3.6078579999999998      31.365934404216937
    50   1      2.5592061199999998      3.6078579999999998      33.881634538709434
    51   1      3.8388091799999997      5.4117869999999995      32.709579315113977
    52   1      3.8388091799999997      5.4117869999999995      30.094397699819858
    53   1      2.5592061199999998      3.6078579999999998      26.172055223595457
    54   1      2.5592061199999998      3.6078579999999998      28.787236838889577
    55   1      3.8388091799999997      5.4117869999999995      27.515700134492498
    56   1      3.8388091799999997      5.4117869999999995                      25
    57   1      2.5592061199999998      7.2157159999999996      31.365934404216937
    58   1      2.5592061199999998      7.2157159999999996      33.881634538709434
    59   1      3.8388091799999997      9.0196449999999988      32.709579315113977
    60   1      3.8388091799999997      9.0196449999999988      30.094397699819858
    61   1      2.5592061199999998      7.2157159999999996      26.172055223595457
    62   1      2.5592061199999998      7.2157159999999996      28.787236838889577
    63   1      3.8388091799999997      9.0196449999999988      27.515700134492498
    64   1      3.8388091799999997      9.0196449999999988                      25
    65   1      2.5592061199999998      10.823573999999999      31.365934404216937
    66   1      2.5592061199999998      10.823573999999999      33.881634538709434
    67   1      3.8388091799999997      12.627502999999999      32.709579315113977
    68   1      3.8388091799999997      12.627502999999999      30.094397699819858
    69   1      2.5592061199999998      10.823573999999999      26.172055223595457
    70   1      2.5592061199999998      10.823573999999999      28.787236838889577
    71   1      3.8388091799999997      12.627502999999999      27.515700134492498
    72   1      3.8388091799999997      12.627502999999999                      25
    73   1      2.5592061199999998      14.431431999999999      31.365934404216937
    74   1      2.5592061199999998      14.431431999999999      33.881634538709434
    75   1      3.8388091799999997      16.235360999999997      32.709579315113977
    76   1      3.8388091799999997      16.235360999999997      30.094397699819858
    77   1      2.5592061199999998      14.431431999999999      26.172055223595457
    78   1      2.5592061199999998      14.431431999999999      28.787236838889577
    79   1      3.8388091799999997      16.235360999999997      27.515700134492498
    80   1      3.8388091799999997      16.235360999999997                      25
    81   1      5.1184122399999996                       0      31.365934404216937
    82   1      5.1184122399999996                       0      33.881634538709434
    83   1      6.3980152999999991      1.8039289999999997      32.709579315113977
    84   1      6.3980152999999991      1.8039289999999997      30.094397699819858
    85   1      5.1184122399999996                       0      26.172055223595457
    86   1      5.1184122399999996                       0      28.787236838889577
    87   1      6.3980152999999991      1.8039289999999997      27.515700134492498
    88   1      6.3980152999999991      1.8039289999999997                      25
    89   1      5.1184122399999996      3.6078579999999998      31.365934404216937
    90   1      5.1184122399999996      3.6078579999999998      33.881634538709434
    91   1      6.3980152999999991      5.4117869999999995      32.709579315113977
    92   1      6.3980152999999991      5.4117869999999995      30.094397699819858
    93   1      5.1184122399999996      3.6078579999999998      26.172055223595457
    94   1      5.1184122399999996      3.6078579999999998      28.787236838889577
    95   1      6.3980152999999991      5.4117869999999995      27.515700134492498
    96   1      6.3980152999999991      5.4117869999999995                      25
    97   1      5.1184122399999996      7.2157159999999996      31.365934404216937
    98   1      5.1184122399999996      7.2157159999999996      33.881634538709434
    99   1      6.3980152999999991      9.0196449999999988      32.709579315113977
   100   1      6.3980152999999991      9.0196449999999988      30.094397699819858
   101   1      5.1184122399999996      7.2157159999999996      26.172055223595457
   102   1      5.1184122399999996      7.2157159999999996      28.787236838889577
   103   1      6.3980152999999991      9.0196449999999988      27.515700134492498
   104   1      6.3980152999999991      9.0196449999999988                      25
   105   1      5.1184122399999996      10.823573999999999      31.365934404216937
   106   1      5.1184122399999996      10.823573999999999      33.881634538709434
   107   1      6.3980152999999991      12.627502999999999      32.709579315113977
   108   1      6.3980152999999991      12.627502999999999      30.094397699819858
   109   1      5.1184122399999996      10.823573999999999      26.172055223595457
   110   1      5.1184122399999996      10.823573999999999      28.787236838889577
   111   1      6.3980152999999991      12.627502999999999      27.515700134492498
   112   1      6.3980152999999991      12.627502999999999                      25
   113   1      5.1184122399999996      14.431431999999999      31.365934404216937
   114   1      5.1184122399999996      14.431431999999999      33.881634538709434
   115   1      6.3980152999999991      16.235360999999997      32.709579315113977
   116   1      6.3980152999999991      16.235360999999997      30.094397699819858
   117   1      5.1184122399999996      14.431431999999999      26.172055223595457
   118   1      5.1184122399999996      14.431431999999999      28.787236838889577
   119   1      6.3980152999999991      16.235360999999997      27.515700134492498
   120   1      6.3980152999999991      16.235360999999997                      25
   121   1      7.6776183599999994                       0      31.365934404216937
   122   1      7.6776183599999994                       0      33.881634538709434
   123   1      8.9572214199999998      1.8039289999999997      32.709579315113977
   124   1      8.9572214199999998      1.8039289999999997      30.094397699819858
   125   1      7.6776183599999994                       0      26.172055223595457
   126   1      7.6776183599999994                       0      28.787236838889577
   127   1      8.9572214199999998      1.8039289999999997      27.515700134492498
   128   1      8.9572214199999998      1.8039289999999997                      25
   129   1      7.6776183599999994      3.6078579999999998      31.365934404216937
   130   1      7.6776183599999994      3.6078579999999998      33.881634538709434
   131   1      8.9572214199999998      5.4117869999999995      32.709579315113977
   132   1      8.9572214199999998      5.4117869999999995      30.094397699819858
   133   1      7.6776183599999994      3.6078579999999998      26.172055223595457
   134   1      7.6776183599999994      3.6078579999999998      28.787236838889577
   135   1      8.9572214199999998      5.4117869999999995      27.515700134492498
   136   1      8.9572214199999998      5.4117869999999995                      25
   137   1      7.6776183599999994      7.2157159999999996      31.365934404216937
   138   1      7.6776183599999994      7.2157159999999996      33.881634538709434
   139   1      8.9572214199999998      9.0196449999999988      32.709579315113977
   140   1      8.9572214199999998      9.0196449999999988      30.094397699819858
   141   1      7.6776183599999994      7.2157159999999996      26.172055223595457
   142   1      7.6776183599999994      7.2157159999999996      28.787236838889577
   143   1      8.9572214199999998      9.0196449999999988      27.515700134492498
   144   1      8.9572214199999998      9.0196449999999988                      25
   145   1      7.6776183599999994      10.823573999999999      31.365934404216937
   146   1      7.6776183599999994      10.823573999999999      33.881634538709434
   147   1      8.9572214199999998      12.627502999999999      32.709579315113977
   148   1      8.9572214199999998      12.627502999999999      30.094397699819858
   149   1      7.6776183599999994      10.823573999999999      26.172055223595457
   150   1      7.6776183599999994      10.823573999999999      28.787236838889577
   151   1      8.9572214199999998      12.627502999999999      27.515700134492498
   152   1      8.9572214199999998      12.627502999999999                      25
   153   1      7.6776183599999994      14.431431999999999      31.365934404216937
   154   1      7.6776183599999994      14.431431999999999      33.881634538709434
   155   1      8.9572214199999998      16.235360999999997      32.709579315113977
   156   1      8.9572214199999998      16.235360999999997      30.094397699819858
   157   1      7.6776183599999994      14.431431999999999      26.172055223595457
   158   1      7.6776183599999994      14.431431999999999      28.787236838889577
   159   1      8.9572214199999998      16.235360999999997      27.515700134492498
   160   1      8.9572214199999998      16.235360999999997                      25
   161   1      10.236824479999999                       0      31.365934404216937
   162   1      10.236824479999999                       0      33.881634538709434
   163   1      11.516427539999999      1.8039289999999997      32.709579315113977
   164   1      11.516427539999999      1.8039289999999997      30.094397699819858
   165   1      10.236824479999999                       0      26.172055223595457
   166   1      10.236824479999999                       0      28.787236838889577
   167   1      11.516427539999999      1.8039289999999997      27.515700134492498
   168   1      11.516427539999999      1.8039289999999997                      25
   169   1      10.236824479999999      3.6078579999999998      31.365934404216937
   170   1      10.236824479999999      3.6078579999999998      33.881634538709434
   171   1      11.516427539999999      5.4117869999999995      32.709579315113977
   172   1      11.516427539999999      5.4117869999999995      30.094397699819858
   173   1      10.236824479999999      3.6078579999999998      26.172055223595457
   174   1      10.236824479999999      3.6078579999999998      28.787236838889577
   175   1      11.516427539999999      5.4117869999999995      27.515700134492498
   176   1      11.516427539999999      5.4117869999999995                      25
   177   1      10.236824479999999      7.2157159999999996      31.365934404216937
   178   1      10.236824479999999      7.2157159999999996      33.881634538709434
   179   1      11.516427539999999      9.0196449999999988      32.709579315113977
   180   1      11.516427539999999      9.0196449999999988      30.094397699819858
   181   1      10.236824479999999      7.2157159999999996      26.172055223595457
   182   1      10.236824479999999      7.2157159999999996      28.787236838889577
   183   1      11.516427539999999      9.0196449999999988      27.515700134492498
   184   1      11.516427539999999      9.0196449999999988                      25
   185   1      10.236824479999999      10.823573999999999      31.365934404216937
   186   1      10.236824479999999      10.823573999999999      33.881634538709434
   187   1      11.516427539999999      12.627502999999999      32.709579315113977
   188   1      11.516427539999999      12.627502999999999      30.094397699819858
   189   1      10.236824479999999      10.823573999999999      26.172055223595457
   190   1      10.236824479999999      10.823573999999999      28.787236838889577
   191   1      11.516427539999999      12.627502999999999      27.515700134492498
   192   1      11.516427539999999      12.627502999999999                      25
   193   1      10.236824479999999      14.431431999999999      31.365934404216937
   194   1      10.236824479999999      14.431431999999999      33.881634538709434
   195   1      11.516427539999999      16.235360999999997      32.709579315113977
   196   1      11.516427539999999      16.235360999999997      30.094397699819858
   197   1      10.236824479999999      14.431431999999999      26.172055223595457
   198   1      10.236824479999999      14.431431999999999      28.787236838889577
   199   1      11.516427539999999      16.235360999999997      27.515700134492498
   200   1      11.516427539999999      16.235360999999997                      25
   201   1      12.796030599999998                       0      31.365934404216937
   202   1      12.796030599999998                       0      33.881634538709434
   203   1      14.075633659999998      1.8039289999999997      32.709579315113977
   204   1      14.075633659999998      1.8039289999999997      30.094397699819858
   205   1      12.796030599999998                       0      26.172055223595457
   206   1      12.796030599999998                       0      28.787236838889577
   207   1      14.075633659999998      1.8039289999999997      27.515700134492498
   208   1      14.075633659999998      1.8039289999999997                      25
   209   1      12.796030599999998      3.6078579999999998      31.365934404216937
   210   1      12.796030599999998      3.6078579999999998      33.881634538709434
   211   1      14.075633659999998      5.4117869999999995      32.709579315113977
   212   1      14.075633659999998      5.4117869999999995      30.094397699819858
   213   1      12.796030599999998      3.6078579999999998      26.172055223595457
   214   1      12.796030599999998      3.6078579999999998      28.787236838889577
   215   1      14.075633659999998      5.4117869999999995      27.515700134492498
   216   1      14.075633659999998      5.4117869999999995                      25
   217   1      12.796030599999998      7.2157159999999996      31.365934404216937
   218   1      12.796030599999998      7.2157159999999996      33.881634538709434
   219   1      14.075633659999998      9.0196449999999988      32.709579315113977
   220   1      14.075633659999998      9.0196449999999988      30.094397699819858
   221   1      12.796030599999998      7.2157159999999996      26.172055223595457
   222   1      12.796030599999998      7.2157159999999996      28.787236838889577
   223   1      14.075633659999998      9.0196449999999988      27.515700134492498
   224   1      14.075633659999998      9.0196449999999988                      25
   225   1      12.796030599999998      10.823573999999999      31.365934404216937
   226   1      12.796030599999998      10.823573999999999      33.881634538709434
   227   1      14.075633659999998      12.627502999999999      32.709579315113977
   228   1      14.075633659999998      12.627502999999999      30.094397699819858
   229   1      12.796030599999998      10.823573999999999      26.172055223595457
   230   1      12.796030599999998      10.823573999999999      28.787236838889577
   231   1      14.075633659999998      12.627502999999999      27.515700134492498
   232   1      14.075633659999998      12.627502999999999                      25
   233   1      12.796030599999998      14.431431999999999      31.365934404216937
   234   1      12.796030599999998      14.431431999999999      33.881634538709434
   235   1      14.075633659999998      16.235360999999997      32.709579315113977
   236   1      14.075633659999998      16.235360999999997      30.094397699819858
   237   1      12.796030599999998      14.431431999999999      26.172055223595457
   238   1      12.796030599999998      14.431431999999999      28.787236838889577
   239   1      14.075633659999998      16.235360999999997      27.515700134492498
   240   1      14.075633659999998      16.235360999999997                      25
